<?xml version="1.0"?>
<VTKFile type="UnstructuredGrid"  version="0.1"  >
<UnstructuredGrid>
<Piece  NumberOfPoints="4167" NumberOfCells="8051">
<Points>
<DataArray  type="Float64"  NumberOfComponents="3"  format="ascii">0.5 0.375 0  0.3125 0.4832531754730549 0  0.3124999999999999 0.2667468245269452 0  0 0 0  1 0 0  1 1 0  0 1 0  0.4996241176446604 0.3846865526008921 0  0.4984987311740475 0.3943148491684596 0  0.496630608797437 0.4038269839484612 0  0.4940309856278295 0.4131657498349951 0  0.4907154960969186 0.4222749824224614 0  0.486704079969003 0.4310998976672737 0  0.4820208623550086 0.4395874215369395 0  0.4766940086530956 0.447686509092569 0  0.4707555552397621 0.4553484513897117 0  0.4642412166377861 0.4625271686564105 0  0.4571901708624048 0.4691794872231141 0  0.4496448237211224 0.4752653992743388 0  0.4416505538151327 0.4807483034196582 0  0.4332554396759655 0.4855952247981798 0  0.4245099704716351 0.4897770134822205 0  0.4154667424870111 0.4932685197019474 0  0.4061801427572045 0.4960487451303827 0  0.3967060220063463 0.4981009691621476 0  0.3871013586455023 0.4994128494928596 0  0.3774239162863441 0.4999764963096534 0  0.3677318962372039 0.499788519775231 0  0.3580835873995462 0.4988500504026188 0  0.3485370158691016 0.4971667322591867 0  0.3391495958538238 0.4947486890222846 0  0.3299777843610683 0.4916104630766963 0  0.3210767417734069 0.4877709280897704 0  0.3042991405434193 0.4780843754993977 0  0.2965234843891615 0.4722956139688826 0  0.2892197952275346 0.4659217051599556 0  0.2824319983124188 0.4590009825154918 0  0.2762009162445269 0.4515750680644752 0  0.2705640235137404 0.4436886221681687 0  0.2655552210277395 0.435389074804248 0  0.2612046323248574 0.4267263404435217 0  0.2575384223399969 0.417752517746012 0  0.2545786401183353 0.4085215763986508 0  0.2523430861235917 0.3990890323241793 0  0.2508452052518272 0.3895116140053087 0  0.2500940059259348 0.379846921122691 0  0.2500940059474608 0.3701530783225796 0  0.2508452053115923 0.3604883854833674 0  0.2523430862145548 0.3509109672126534 0  0.2545786402276369 0.3414784232086989 0  0.2575384224654712 0.3322474819092504 0  0.2612046324436155 0.3232736592952164 0  0.2655552211593841 0.314610924957169 0  0.2705640236327191 0.3063113776509329 0  0.2762009163543195 0.2984249317938676 0  0.2824319984083981 0.2909990173787402 0  0.2892197952949948 0.284078294776399 0  0.2965234844509478 0.2777043859812819 0  0.3042991405813632 0.2719156244745783 0  0.3210767418028631 0.2622290718961447 0  0.3299777844032735 0.2583895369070087 0  0.3391495959321749 0.2552513109542586 0  0.3485370160110807 0.2528332677100587 0  0.358083587623133 0.251149949566842 0  0.3677318964981928 0.2502114802095681 0  0.3774239165799746 0.2500235036960416 0  0.3871013589791346 0.2505871505395921 0  0.3967060223829162 0.2518990309042519 0  0.4061801432258466 0.2539512549903317 0  0.4154667430090531 0.2567314804766744 0  0.4245099710362102 0.2602229867613134 0  0.4332554402548159 0.2644047755067264 0  0.441650554379674 0.2692516969361583 0  0.4496448241993389 0.2747346010816803 0  0.4571901712606461 0.28082051312443 0  0.4642412169940958 0.2874728317068768 0  0.470755555539801 0.2946515489678607 0  0.4766940088965891 0.3023134912480971 0  0.4820208625418981 0.3104125787727351 0  0.4867040801103186 0.3189001026141089 0  0.4907154962079453 0.3277250178493 0  0.4940309856941242 0.3368342503717641 0  0.4966306088350756 0.3461730162103483 0  0.498498731190965 0.3556851509397102 0  0.4996241176468836 0.3653134474277117 0  0 0.9899999999999584 0  0 0.9799999999999167 0  0 0.9699999999998751 0  0 0.9599999999998334 0  0 0.9499999999997918 0  0 0.9399999999997501 0  0 0.9299999999997085 0  0 0.9199999999996669 0  0 0.9099999999996251 0  0 0.8999999999995835 0  0 0.8899999999995418 0  0 0.879999999999508 0  0 0.8699999999995218 0  0 0.8599999999995834 0  0 0.8499999999996528 0  0 0.8399999999997222 0  0 0.8299999999997916 0  0 0.819999999999861 0  0 0.8099999999999303 0  0 0.7999999999999997 0  0 0.7900000000000691 0  0 0.7800000000001385 0  0 0.7700000000002079 0  0 0.7600000000002772 0  0 0.7500000000003466 0  0 0.7400000000004161 0  0 0.7300000000004854 0  0 0.7200000000005549 0  0 0.7100000000006242 0  0 0.7000000000006936 0  0 0.690000000000763 0  0 0.6800000000008324 0  0 0.6700000000009018 0  0 0.660000000000971 0  0 0.6500000000010404 0  0 0.6400000000011098 0  0 0.6300000000011791 0  0 0.6200000000012484 0  0 0.6100000000013178 0  0 0.6000000000013872 0  0 0.5900000000014565 0  0 0.5800000000015259 0  0 0.5700000000015952 0  0 0.5600000000016645 0  0 0.5500000000017339 0  0 0.5400000000018033 0  0 0.5300000000018725 0  0 0.5200000000019419 0  0 0.5100000000020113 0  0 0.500000000002059 0  0 0.490000000002039 0  0 0.4800000000019974 0  0 0.4700000000019557 0  0 0.4600000000019141 0  0 0.4500000000018726 0  0 0.4400000000018309 0  0 0.4300000000017893 0  0 0.4200000000017478 0  0 0.4100000000017061 0  0 0.4000000000016645 0  0 0.3900000000016228 0  0 0.3800000000015813 0  0 0.3700000000015397 0  0 0.360000000001498 0  0 0.3500000000014565 0  0 0.3400000000014148 0  0 0.3300000000013732 0  0 0.3200000000013316 0  0 0.3100000000012899 0  0 0.3000000000012484 0  0 0.2900000000012067 0  0 0.2800000000011651 0  0 0.2700000000011236 0  0 0.2600000000010819 0  0 0.2500000000010403 0  0 0.2400000000009987 0  0 0.2300000000009571 0  0 0.2200000000009155 0  0 0.2100000000008738 0  0 0.2000000000008322 0  0 0.1900000000007906 0  0 0.180000000000749 0  0 0.1700000000007074 0  0 0.1600000000006658 0  0 0.1500000000006242 0  0 0.1400000000005825 0  0 0.130000000000541 0  0 0.1200000000004994 0  0 0.1100000000004577 0  0 0.1000000000004161 0  0 0.09000000000037445 0  0 0.08000000000033292 0  0 0.07000000000029127 0  0 0.06000000000024963 0  0 0.0500000000002081 0  0 0.04000000000016646 0  0 0.03000000000012482 0  0 0.02000000000008328 0  0 0.01000000000004164 0  0.01000880648646292 0 0  0.02041831929337597 0 0  0.03124457645510462 0 0  0.04250426747489851 0 0  0.05421474140011826 0 0  0.06639404694602596 0 0  0.07906095429041501 0 0  0.09223498333913878 0 0  0.1059364384761574 0 0  0.1201864376590382 0 0  0.1350069303503622 0 0  0.1504207725272205 0 0  0.1664517091443109 0 0  0.1831244448628812 0 0  0.2004646799903403 0 0  0.2184991330020733 0 0  0.2372556042291131 0 0  0.2567629919237742 0 0  0.2770513622890255 0 0  0.2981519823132751 0 0  0.3200973694257265 0 0  0.3429213458546678 0 0  0.3666590861938716 0 0  0.3913471699708689 0 0  0.4170236498513709 0 0  0.4437280901961203 0 0  0.471501658674753 0 0  0.5003871411763539 0 0  0.5304290581634378 0 0  0.561673710810741 0 0  0.594169248816528 0 0  0.6279657517485627 0 0  0.6631153075111298 0 0  0.6996720849440052 0 0  0.7376924242835831 0 0  0.7772349127737125 0 0  0.8183604868434031 0 0  0.8611325440458665 0 0  0.9056169878730453 0 0  0.9518823702436322 0 0  1 0.04999999999989965 0  1 0.09999999999981467 0  1 0.1499999999997036 0  1 0.1999999999995579 0  1 0.2499999999994121 0  1 0.2999999999992664 0  1 0.3499999999991206 0  1 0.3999999999989749 0  1 0.4499999999988292 0  1 0.4999999999986943 0  1 0.5499999999988151 0  1 0.5999999999989468 0  1 0.6499999999990784 0  1 0.69999999999921 0  1 0.7499999999993417 0  1 0.7999999999994734 0  1 0.8499999999996051 0  1 0.8999999999997368 0  1 0.9499999999998684 0  0.9518823702436662 1 0  0.9056169878731111 1 0  0.8611325440461125 1 0  0.8183604868441348 1 0  0.7772349127748915 1 0  0.737692424285175 1 0  0.6996720849459768 1 0  0.6631153075134513 1 0  0.6279657517512021 1 0  0.594169248819457 1 0  0.5616737108139339 1 0  0.5304290581668688 1 0  0.5003871411800016 1 0  0.4715016586781298 1 0  0.443728090199235 1 0  0.4170236498542382 1 0  0.3913471699735037 1 0  0.3666590861962874 1 0  0.3429213458568784 1 0  0.3200973694277434 1 0  0.2981519823151096 1 0  0.2770513622906891 1 0  0.2567629919252782 1 0  0.2372556042304668 1 0  0.2184991330032861 1 0  0.2004646799914215 1 0  0.1831244448638384 1 0  0.1664517091451517 1 0  0.1504207725279533 1 0  0.1350069303509938 1 0  0.1201864376595815 1 0  0.1059364384766315 1 0  0.09223498333954738 1 0  0.0790609542907641 1 0  0.06639404694631856 1 0  0.05421474140035298 1 0  0.04250426747507641 1 0  0.03124457645523004 1 0  0.0204183192934565 1 0  0.01000880648650171 1 0  0.331673660186788 0.5027886647090321 0  0.008843456962550074 0.7351220287147325 0  0.007240744687532393 0.6751145769368252 0  0.2952923113422249 0.481716317058313 0  0.00888860206568854 0.6152524673921652 0  0.3718595571776056 0.5084892744923125 0  0.2800259717394804 0.2815820426794052 0  0.4660579467613145 0.471488888265352 0  0.0080759118112447 0.1645222752997742 0  0.008869070970807306 0.7948335655377503 0  0.4130473759504595 0.5027717733376101 0  0.008608766745663382 0.5551046631043064 0  0.2666174424568949 0.9813237569403799 0  0.266771315343628 0.4517130772946858 0  0.008158446177458293 0.2157070891689252 0  0.008136929793167227 0.8449322659714206 0  0.2558935454467418 0.3153689103456601 0  0.008737806034519881 0.5058670364485962 0  0.007551052315480701 0.2660637027332806 0  0.2484734889871192 0.41499403672338 0  0.5002658617975508 0.3295904713422265 0  0.2443841714423321 0.3538868861630054 0  0.009583048473836177 0.4556508073175106 0  0.3797415392813582 0.9759075708956551 0  0.008718022900131288 0.3951041384411812 0  0.008827530552860391 0.3149469474377399 0  0.491408973191183 0.4394266693484328 0  0.1747880770044951 0.9858388944800406 0  0.4860714827223366 0.9752414115088814 0  0.1747257133240278 0.01401342340745553 0  0.6815610131273475 0.9681416240768347 0  0.505910276923845 0.4008893741602258 0  0.312875882367241 0.2570602719515305 0  0.4803602188752099 0.2933396686418114 0  0.2413405106648255 0.3843665549105043 0  0.008437504060394016 0.1150000000004785 0  0.4416505537888543 0.4904421462199984 0  0.342210833265731 0.2478597611495163 0  0.3716701032914402 0.2409127315128948 0  0.4030693359597729 0.2453731450895245 0  0.4325042409279422 0.2547400826318074 0  0.4590621352692721 0.2710581029868
[...]
<PointData  Scalars="u"> 
<DataArray  type="Float64"  Name="u"  format="ascii">5.2058351388863566e-01  4.4442175364404862e-01  4.6388735608230208e-01  0.0000000000000000e+00  0.0000000000000000e+00  0.0000000000000000e+00  0.0000000000000000e+00  5.2614794099348861e-01  5.3216405301324710e-01  5.3845522921948730e-01  5.4482516631039413e-01  5.5106533649530687e-01  5.5696321583426522e-01  5.6230840329800613e-01  5.6690273253826862e-01  5.7056557730333246e-01  5.7314252230396534e-01  5.7450885077142444e-01  5.7457250794403514e-01  5.7327766051583595e-01  5.7060326270210049e-01  5.6656004629043477e-01  5.6118936584825896e-01  5.5455703446146842e-01  5.4675214294191155e-01  5.3788128546414715e-01  5.2806227438402475e-01  5.1742670538534619e-01  5.0610988777227750e-01  4.9425565470023042e-01  4.8200944843180282e-01  4.6952233116229553e-01  4.5694208898416711e-01  4.3211003997561931e-01  4.2015634283454772e-01  4.0870559905152465e-01  3.9789873889022814e-01  3.8787169242527547e-01  3.7875078935259859e-01  3.7065570174933266e-01  3.6369363464878846e-01  3.5796070866064944e-01  3.5353797075138010e-01  3.5049222945523517e-01  3.4887157720980638e-01  3.4870721122601234e-01  3.5000865267036418e-01  3.5276540652661614e-01  3.5694296467724002e-01  3.6248480963775914e-01  3.6930944134096544e-01  3.7731135874247346e-01  3.8636058058121331e-01  3.9630492667973238e-01  4.0696792189449443e-01  4.1815897416277631e-01  4.2966748050708442e-01  4.4127440686555824e-01  4.5275551658697688e-01  4.7445478852963774e-01  4.8425978736688519e-01  4.9312648958285998e-01  5.0090928019378300e-01  5.0749805639496437e-01  5.1282276427050622e-01  5.1685751671339086e-01  5.1962038315726433e-01  5.2117264448425082e-01  5.2161441121191132e-01  5.2108154214785185e-01  5.1973968287947414e-01  5.1777386465282971e-01  5.1538385893941918e-01  5.1277794199768079e-01  5.1015829138452051e-01  5.0772110055389574e-01  5.0564800940898447e-01  5.0410031144630929e-01  5.0321443007010858e-01  5.0309820377699799e-01  5.0383023546723060e-01  5.0545535073636194e-01  5.0798452752409284e-01  5.1139358552939040e-01  5.1562413501833571e-01  0.0000000000000000e+00  0.0000000000000000e+00  0.0000000000000000e+00  0.0000000000000000e+00  0.0000000000000000e+00  0.0000000000000000e+00  0.0000000000000000e+00  0.0000000000000000e+00  0.0000000000000000e+00  0.0000000000000000e+00  0.0000000000000000e+00  0.0000000000000000e+00  0.0000000000000000e+00  0.0000000000000000e+00  0.0000000000000000e+00  0.0000000000000000e+00  0.0000000000000000e+00  0.0000000000000000e+00  0.0000000000000000e+00  0.0000000000000000e+00  0.0000000000000000e+00  0.0000000000000000e+00  0.0000000000000000e+00  0.0000000000000000e+00  0.0000000000000000e+00  0.0000000000000000e+00  0.0000000000000000e+00  0.0000000000000000e+00  0.0000000000000000e+00  0.0000000000000000e+00  0.0000000000000000e+00  0.0000000000000000e+00  0.0000000000000000e+00  0.0000000000000000e+00  0.0000000000000000e+00  0.0000000000000000e+00  0.0000000000000000e+00  0.0000000000000000e+00  0.0000000000000000e+00  0.0000000000000000e+00  0.0000000000000000e+00  0.0000000000000000e+00  0.0000000000000000e+00  0.0000000000000000e+00  0.0000000000000000e+00  0.0000000000000000e+00  0.0000000000000000e+00  0.0000000000000000e+00  0.0000000000000000e+00  0.0000000000000000e+00  0.0000000000000000e+00  0.0000000000000000e+00  0.0000000000000000e+00  0.0000000000000000e+00  0.0000000000000000e+00  0.0000000000000000e+00  0.0000000000000000e+00  0.0000000000000000e+00  0.0000000000000000e+00  0.0000000000000000e+00  0.0000000000000000e+00  0.0000000000000000e+00  0.0000000000000000e+00  0.0000000000000000e+00  0.0000000000000000e+00  0.0000000000000000e+00  0.0000000000000000e+00  0.0000000000000000e+00  0.0000000000000000e+00  0.0000000000000000e+00  0.0000000000000000e+00  0.0000000000000000e+00  0.0000000000000000e+00  0.0000000000000000e+00  0.0000000000000000e+00  0.0000000000000000e+00  0.0000000000000000e+00  0.0000000000000000e+00  0.0000000000000000e+00  0.0000000000000000e+00  0.0000000000000000e+00  0.0000000000000000e+00  0.0000000000000000e+00  0.0000000000000000e+00  0.0000000000000000e+00  0.0000000000000000e+00  0.0000000000000000e+00  0.0000000000000000e+00  0.0000000000000000e+00  0.0000000000000000e+00  0.0000000000000000e+00  0.0000000000000000e+00  0.0000000000000000e+00  0.0000000000000000e+00  0.0000000000000000e+00  0.0000000000000000e+00  0.0000000000000000e+00  0.0000000000000000e+00  0.0000000000000000e+00  2.3272939016324743e-02  4.7434820043988475e-02  7.2470764448713060e-02  9.8354820307714252e-02  1.2504909263395761e-01  1.5250131351741383e-01  1.8064227192089821e-01  2.0938260093556285e-01  2.3861360271888826e-01  2.6819833379017310e-01  2.9797290376427199e-01  3.2774119143918706e-01  3.5727076965518623e-01  3.8628937430509097e-01  4.1448167623917354e-01  4.4148384636781179e-01  4.6688250351837252e-01  4.9021162588602490e-01  5.1095312580767860e-01  5.2854109918418413e-01  5.4236661091190341e-01  5.5179236256054354e-01  5.5617761183025849e-01  5.5489538180531095e-01  5.4737485418431819e-01  5.3314217093843386e-01  5.1185328300779531e-01  4.8335100261055441e-01  4.4769462451951114e-01  4.0521015430872936e-01  3.5652083407373847e-01  3.0258990242465694e-01  2.4475910600034673e-01  1.8477657605312550e-01  1.2482955343016433e-01  6.7584504575234780e-02  1.6228698444554598e-02  -2.5282692306533863e-02  -5.1899586759134766e-02  -5.5242766738074857e-02  0.0000000000000000e+00  0.0000000000000000e+00  0.0000000000000000e+00  0.0000000000000000e+00  0.0000000000000000e+00  0.0000000000000000e+00  0.0000000000000000e+00  0.0000000000000000e+00  0.0000000000000000e+00  0.0000000000000000e+00  0.0000000000000000e+00  0.0000000000000000e+00  0.0000000000000000e+00  0.0000000000000000e+00  0.0000000000000000e+00  0.0000000000000000e+00  0.0000000000000000e+00  0.0000000000000000e+00  0.0000000000000000e+00  -6.2241976787496663e-02  -6.5667401800639347e-02  -4.5720624010330634e-02  -1.0807426488594705e-02  3.3941484524381962e-02  8.4640724811227724e-02  1.3813401843862477e-01  1.9182601975014946e-01  2.4364255789079803e-01  2.9194046808050300e-01  3.3551747655558850e-01  3.7355513148262720e-01  4.0555479132282668e-01  4.3129962773966196e-01  4.5079849731267874e-01  4.6423798575019071e-01  4.7193727618388476e-01  4.7430529812526029e-01  4.7181506102535453e-01  4.6496908673436710e-01  4.5428357230296801e-01  4.4026646558665039e-01  4.2341127752755847e-01  4.0418170010679716e-01  3.8301043242488264e-01  3.6029520242484026e-01  3.3639506942590031e-01  3.1163207891659761e-01  2.8629220949654871e-01  2.6062518544429381e-01  2.3484703232202289e-01  2.0914553183002091e-01  1.8367730585321781e-01  1.5857533912779684e-01  1.3394903028972896e-01  1.0988706274021602e-01  8.6460180263743067e-02  6.3723090958864095e-02  4.1716573724500848e-02  2.0469419382147965e-02  4.6347761279376420e-01  1.1026285462989593e-02  8.9552953391029127e-03  4.1507080399957691e-01  1.1168197895767427e-02  5.1178964937785310e-01  4.1351896091049106e-01  5.6663802815152786e-01  1.3346222613744128e-02  1.1534273266387750e-02  5.4850613868362241e-01  1.1129284767698979e-02  4.0915005365969287e-01  3.7270905879841443e-01  1.2745400358600866e-02  1.1310299990039343e-02  3.7098276868501051e-01  1.1594138914203285e-02  1.1337105608101668e-02  3.4539036770941139e-01  4.9745445225086399e-01  3.4555898185613165e-01  1.3046223326151261e-02  4.4557191203148977e-01  1.2217558194571558e-02  1.2869857426110335e-02  5.5282012467791919e-01  3.1034011888463231e-01  3.9930575625531894e-01  3.5819466949774792e-01  1.7536273744261605e-01  5.2842266866507848e-01  4.5876602232210578e-01  4.9705482935201473e-01  3.3700571836588633e-01  1.5030764867880910e-02  5.6347764217086094e-01  4.8925722151751533e-01  5.0398220597241838e-01  5.1287281438491472e-01  5.0998519977304446e-01  5.0276474317966657e-01  5.1132671498691740e-01  1.2727266818224905e-02  1.2970095593620166e-02  4.5920351996670145e-01  1.6340696733223400e-01  2.4604450708813100e-01  2.1581712632454045e-01  4.0792350040636048e-02  3.3172609537480818e-01  3.6999534855433107e-02  5.1940915313385416e-01  3.7554062435028714e-02  1.6677068352894349e-02  1.5185393981103268e-02  4.4962189912128087e-01  5.3032631315229961e-01  3.0621606266527390e-01  1.6079617125756682e-01  1.4131754157851717e-01  1.1891435423522305e-02  1.1555588661620930e-02  9.5379474202207191e-03  1.0714292700510259e-02  1.0703433781720541e-02  2.5486223248276440e-02  1.9636513777269406e-02  1.5208929526489338e-02  4.0663939056459222e-02  2.4025988553847674e-02  3.9272970486060249e-01  3.5732188587313740e-01  3.8842210725044091e-01  3.5573706318244630e-01  4.3849619718843735e-01  4.9003547221632304e-01  5.3317238397231859e-01  4.3660724716033134e-01  5.6171538665373388e-01  5.4083871639024339e-01  4.9553909095612997e-01  5.0308902366422814e-01  8.3163754431249376e-02  7.2840434707332868e-02  3.1042157001239620e-02  5.0172625917297686e-01  4.9801876572259679e-01  4.1294081253706993e-01  4.3494220092242297e-01  4.3761830362190562e-01  3.0217283909831971e-01  3.5593678781050669e-01  2.5979973045805110e-01  -1.2061096429211111e-02  1.3513994609552460e-02  1.2048787086744121e-02  1.1372149966162114e-02  1.1627845698664437e-02  1.3242819701774707e-02  9.6440287971300779e-03  1.3960950976952203e-02  1.4651323882772509e-02  1.1219270201273683e-02  1.5808846849511133e-02  1.3457125210068858e-02  1.1799407559077525e-02  1.7545233165014728e-02  1.9245977322179850e-02  1.1778963557369364e-02  2.1330779285990485e-03  3.4649156613369141e-02  2.9666059849147101e-02  4.0376247374011626e-01  3.9838100167987156e-01  4.0879255276766358e-01  3.9264206656117551e-01  4.0190369839788820e-01  3.8634684590243096e-01  3.9506520967953562e-01  3.8025526146865524e-01  3.8756525796305524e-01  3.7352025205170525e-01  3.8202346164443018e-01  3.6647620551236337e-01  3.7380535299267026e-01  3.5930253535989753e-01  3.6688457689157722e-01  3.5232058083098600e-01  3.5980094999316209e-01  3.4554180009216434e-01  3.5275942282481970e-01  3.3848908575334680e-01  3.4572000229243510e-01  3.3168548992023478e-01  3.5271195339869998e-01  3.3881991709489451e-01  3.2427129641181479e-01  3.3241658490534398e-01  3.1764668887142694e-01  3.2587658301532696e-01  3.1153378560636352e-01  3.1913248911000264e-01  3.0538618005612772e-01  3.3403005584963791e-01  3.1670106782622687e-01  3.1301228350525773e-01  2.9988151267113222e-01  3.0733522872614744e-01  2.9402500747227706e-01  3.0198604201350704e-01  2.8866410919062463e-01  2.8572743601625145e-01  2.9708014868327193e-01  2.8424808022298037e-01  2.9254992370236210e-01  3.0494769390349502e-01  2.8015426129093030e-01  3.0040100238406064e-01  3.1242071153315171e-01  3.0792827949559032e-01  3.1954649311883748e-01  3.1516845700922819e-01  3.2659819561184483e-01  3.5970837530591065e-01  3.2235303256387815e-01  3.3293140353418571e-01  3.1138298538240222e-01  3.1904718003074994e-01  3.0843033710161644e-01  3.1669637053482436e-01  3.0644614413246390e-01  3.1539585114017843e-01  3.0551223345714790e-01  3.3788480606573057e-01  3.4318647429546423e-01  3.4896498395954118e-01  3.5321778967636913e-01  3.5976141154626134e-01  3.6276222065954822e-01  3.7000235470105963e-01  3.7180595892674667e-01  3.6557598190583757e-01  3.7306214987548203e-01  3.8071535526461592e-01  3.7998120177916672e-01  3.8894343208439791e-01  3.8637963287982019e-01  3.9618179197036796e-01  3.9185533019036972e-01  4.0254035650041459e-01  3.9627117010790019e-01  4.0773091141855566e-01  3.9926821257467859e-01  4.1120390076103280e-01  4.0077639512263313e-01  4.1314246432416651e-01  4.0037436102796264e-01  4.1264468675194582e-01  3.9738003211133072e-01  4.0992413024117541e-01  3.9179818618114909e-01  4.0491476650637642e-01  3.9057694576928514e-01  3.8440325174003231e-01  3.9655130920393838e-01  3.7341546904184503e-01  3.7187953616601227e-01  3.6111055061349112e-01  3.9955335650070944e-01  3.5038237193949034e-01  3.3735126086212441e-01  3.1522434653091774e-01  3.0551686156747632e-01  2.9498749103421606e-01  2.9525677999875882e-01  2.8386824918437992e-01  2.8457053117340941e-01  2.7245926468164949e-01  2.7327521408880662e-01  2.6053879447099998e-01  2.6147259312567794e-01  2.4826486390402050e-01  2.4870898089568527e-01  2.3543486569088956e-01  2.3519401420247021e-01  2.2201683781199588e-01  2.2172436117288130e-01  2.0848266809935800e-01  2.0849235637070265e-01  2.0817212364154486e-01  1.9511386916335705e-01  1.9566724326090359e-01  1.8214837540469309e-01  1.8304926411362479e-01  1.6951545413169064e-01  1.7065633133958663e-01  2.7144478907655784e-01  4.2055961039661632e-01  1.6842542797013554e-01  1.5712315148267617e-01  1.5851334472863504e-01  3.7232563378629180e-01  2.9717921994588153e-01  2.6126149745861699e-01  3.2776154710624766e-01  3.1310316345623607e-01  3.2209657731239044e-01  4.2305985763903353e-01  1.4491871590779015e-01  1.4591188246948808e-01  1.5995911306064903e-01  1.4770355694665441e-01  1.6170371039454914e-01  1.5056908230681476e-01  1.6383249709681658e-01  1.5110133673415144e-01  1.6610872939765792e-01  1.5560744102248095e-01  1.6888865401294045e-01  1.5797790480366122e-01  1.4613128296796205e-01  1.4763302115995500e-01  1.6058553349780558e-01  1.5081878335061005e-01  1.6346166387961783e-01  1.5352900588307053e-01  1.6587075023036280e-01  1.5668973842703363e-01  1.7061891924830896e-01  1.5975134040197084e-01  1.7235948482467670e-01  1.6327770848212761e-01  1.7597657320246463e-01  1.6663784191404293e-01  1.7933170504717802e-01  1.6956144213579641e-01  1.8283093096139913e-01  1.7301446662008227e-01  1.8640496988235658e-01  1.7660095350311705e-01  1.9002342084262047e-01  1.8024785226799733e-01  1.9366749159652358e-01  1.8392537760865782e-01  1.9736153586648952e-01  1.8762227429060610e-01  2.0107631247061486e-01  1.9133417353123275e-01  2.0473468466416467e-01  1.9501761781039245e-01  2.0831495620594279e-01  1.9866469523499605e-01  1.8521788340075096e-01  1.8883401944509065e-01  2.0230114801129112e-01  1.9236011889804586e-01  1.7894779653042109e-01  1.8239163033580186e-01  1.9583939508617279e-01  1.8584080833300581e-01  1.9930641827704157e-01  1.8924937056405158e-01  1.7582411711837612e-01  1.7914751159443071e-01  1.9263025137863024e-01  1.8245808404529826e-01  1.9587324604263120e-01  1.8573828495487088e-01  1.9914890957878031e-01  1.8898410154209597e-01  1.7559868322326672e-01  1.7879580388076730e-01  1.9219619371704330e-01  1.8199505963713927e-01  1.9538769303903269e-01  1.8519465667097151e-01  1.9857013024688497e-01  1.8838179893127391e-01  2.0177308570730565e-01  1.9155901293954256e-01  1.7816712460338782e-01  1.8134439045211495e-01  1.9474285227668892e-01  1.8433086378514912e-01  1.9792913658949210e-01  1.8747518392051024e-01  2.0113410924832373e-01  1.9064199730220591e-01  2.0443231258637770e-01  1.9387563107285397e-01  2.0786606589098866e-01  1.9716592616152576e-01  2.1109738172037232e-01  2.0044142035103493e-01  2.1416226080464162e-01  2.0371677462811807e-01  2.1738832516882600e-01  2.0702078281908959e-01  2.2074707511534350e-01  2.1041598233142678e-01  2.2416009042595886e-01  2.1381375408749673e-01  2.2763094036373008e-01  2.1742406443625037e-01  2.3140853946777148e-01  2.2098588299663086e-01  2.3502253120702141e-01  2.2456292058679972e-01  2.3872840635859946e-01  2.2821066029106854e-01  2.4189983355478104e-01  2.3180178946244490e-01  2.4579083276974997e-01  2.3563507956604662e-01  2.5067934790142293e-01  2.3981263091799898e-01  2.5523332912688745e-01  2.4420665675676367e-01  2.6030062078321531e-01  2.4879820140906742e-01  2.6547222680458521e-01  2.5384383717823317e-01  2.1744864333521488e-01  2.3032003528535006e-01  2.7072596111270175e-01  2.0286423971341910e-01  2.8203257057638670e-01  2.5943920326488168e-01  2.8755988954050132e-01  2.9862909872873206e-01  1.8902223185568862e-01  3.0428786681707043e-01  3.1520451840986236e-01  1.7075223056784303e-01  3.2087544360937809e-01  3.3154820901675719e-01  1.7604166910944019e-01  2.6191544220700808e-01  1.6545740112615387e-01  1.5736965538485714e-01  3.3683464892998216e-01  3.4752775980546685e-01  3.2614358247657671e-01  3.5176105066965485e-01  3.6305035186984513e-01  1.4808132929853987e-01  2.4511196598071289e-01  1.6794165090985952e-01  2.0929785392653003e-01  2.1454249909822462e-01  3.6760793912749640e-01  3.7819606257931521e-01  2.1193542110797689e-01  2.1474642953348250e-01  3.8391156825705924e-01  3.9295345282704192e-01  2.3390614873477966e-01  3.4229888624589278e-01  1.3930189170380272e-01  2.2463640773493157e-01  1.3674829429729501e-01  2.9642322142325378e-01  3.0553550364339493e-01  1.9609857950846807e-01  3.8247202722738760e-01  3.9819829751758645e-01  4.0665593649228216e-01  3.2416790018399072e-01  3.2471275898990953e-01  3.3266002804441941e-01  3.3403887207796262e-01  3.4064915496163373e-01  2.8928541623789550e-01  3.7212480393705794e-01  2.6770536229490111e-01  2.7674534874834661e-01  2.8456238675605672e-01  4.1202876918879788e-01  4.1971358725168140e-01  1.8538562984488180e-01  3.8714657972941396e-01  1.6579762092889921e-01  1.9668198929135997e-01  3.4315825799104294e-01  3.4843305669111141e-01  4.2486998866520703e-01  4.3137856225321008e-01  1.7601711820682039e-01  1.7812844699547356e-01  4.3661124948080404e-01  4.4212448818764427e-01  4.4724904606629218e-01  4.5119082065367122e-01  4.4779259465106241e-01  4.5509986877411923e-01  2.5413278239543308e-01  2.6064605316375439e-01  2.9254062844509393e-01  2.6669215531296198e-01  2.9888313458204818e-01  2.7125128800564052e-01  3.0306858480185317e-01  2.7380227877523328e-01  3.0478862334756607e-01  2.7402454418312999e-01  3.0428725219719838e-01  3.3474551987573609e-01  3.3287615556950423e-01  3.0214324139981319e-01  3.2875199443815939e-01  2.9840082090809333e-01  3.2338998993811829e-01  2.9282952688171332e-01  3.2218663755503435e-01  2.8648872598940101e-01  3.0984661331821722e-01  2.7748336355541942e-01  2.9952259285331018e-01  3.6292580878192382e-01  2.6765401871537364e-01  2.8919351088887640e-01  3.1959706843505992e-01  3.1450169395665584e-01  2.7958835109042385e-01  3.0066881005708451e-01  3.4850045116737211e-01  3.3106618549695938e-01  3.1990409131984859e-01  2.6877617749876925e-01  3.4775781418184099e-01  3.3821873746949571e-01  3.6427149324161412e-01  3.5513590686757363e-01  3.7861072694911407e-01  3.7068120893286149e-01  3.4773258371220361e-01  3.9147082821337381e-01  3.8555072078497987e-01  4.0396593508044687e-01  3.9855039685684662e-01  4.1586507624255148e-01  3.7259253459462027e-01  3.6733987392645856e-01  4.1830618705685191e-01  3.5193043038541083e-01  3.5550989453907145e-01  3.4760379139032871e-01  4.1048582548630402e-01  4.2621435500631999e-01  4.5861544215839245e-01  4.6074648735428614e-01  2.6163602900041638e-01  4.2182432697365557e-01  4.3564236323722833e-01  2.5873123916553897e-01  2.5521908247083974e-01  3.4004736327631974e-01  4.5309109346652704e-01  4.3225276501939464e-01  4.4407418706921520e-01  4.6451886975389378e-01  3.9997229752166186e-01  2.4354655427523653e-01  3.6044777269837691e-01  3.6221229755300932e-01  4.6499604985927984e-01  3.9223120239384868e-01  2.6065252852346155e-01  2.2916040420550107e-01  2.2324098179598306e-01  3.5807471220626841e-01  3.6261350936556336e-01  4.4188466744576038e-01  2.4594238759265732e-01  2.4253905509663967e-01  3.5962876697066393e-01  3.6185624677022615e-01  3.5994174580821137e-01  3.5981755774353069e-01  3.6289472451605970e-01  3.5829303513925337e-01  3.5635791370654202e-01  3.5212464713075692e-01  3.5159544301864842e-01  3.4444554125172666e-01  4.6872607595230764e-01  4.2259617933810650e-01  4.4792959805194449e-01  4.5408854304794555e-01  2.4951509414853409e-01  2.6536621403930200e-01  3.4627797368989699e-01  3.3540898163863114e-01  1.9748670152237022e-01  1.9202583156115161e-01  3.6838775686522096e-01  4.6995919217229210e-01  4.3050984151106181e-01  2.3647852870219147e-01  2.4018512550943619e-01  3.4558631526202083e-01  3.3534598542118371e-01  4.6746525557917934e-01  4.6626701397564940e-01  4.7098356180442114e-01  3.408285132099094