<?xml version="1.0"?>
<VTKFile type="UnstructuredGrid"  version="0.1"  >
<UnstructuredGrid>
<Piece  NumberOfPoints="2824" NumberOfCells="5370">
<Points>
<DataArray  type="Float64"  NumberOfComponents="3"  format="ascii">0 0 0  0.8 0 0  0.8 1.2 0  0 1.2 0  0.16 0.88 0  0.16 1.04 0  0.08 0.96 0  0.24 0.96 0  0.5600000000000001 0.2 0  0.5600000000000001 0.52 0  0.4 0.36 0  0.72 0.36 0  0.01999999999996386 0 0  0.03999999999992242 0 0  0.05999999999988802 0 0  0.07999999999985986 0 0  0.09999999999982846 0 0  0.1199999999997737 0 0  0.1399999999997163 0 0  0.159999999999648 0 0  0.1799999999995906 0 0  0.1999999999995331 0 0  0.2199999999994757 0 0  0.2399999999994182 0 0  0.2599999999993609 0 0  0.2799999999993034 0 0  0.2999999999992351 0 0  0.3199999999991668 0 0  0.3399999999991094 0 0  0.359999999999052 0 0  0.3799999999989946 0 0  0.399999999998948 0 0  0.4199999999989946 0 0  0.4399999999990413 0 0  0.4599999999990987 0 0  0.4799999999991541 0 0  0.499999999999203 0 0  0.5199999999992692 0 0  0.5399999999993114 0 0  0.5599999999993579 0 0  0.5799999999994305 0 0  0.5999999999994684 0 0  0.6199999999995064 0 0  0.639999999999579 0 0  0.6599999999996257 0 0  0.679999999999668 0 0  0.6999999999997449 0 0  0.7199999999997829 0 0  0.739999999999834 0 0  0.7599999999999024 0 0  0.7799999999999403 0 0  0.8 0.01999999999996266 0  0.8 0.03999999999992378 0  0.8 0.05999999999987994 0  0.8 0.07999999999984107 0  0.8 0.09999999999980989 0  0.8 0.1199999999997796 0  0.8 0.139999999999745 0  0.8 0.1599999999997037 0  0.8 0.1799999999996454 0  0.8 0.1999999999995871 0  0.8 0.2199999999995313 0  0.8 0.2399999999994814 0  0.8 0.2599999999994231 0  0.8 0.2799999999993648 0  0.8 0.2999999999993065 0  0.8 0.3199999999992482 0  0.8 0.3399999999991899 0  0.8 0.3599999999991316 0  0.8 0.3799999999990732 0  0.8 0.399999999999015 0  0.8 0.4199999999989567 0  0.8 0.4399999999988984 0  0.8 0.4599999999988618 0  0.8 0.4799999999988035 0  0.8 0.4999999999987451 0  0.8 0.5199999999986868 0  0.8 0.5399999999986286 0  0.8 0.5599999999985703 0  0.8 0.5799999999985119 0  0.8 0.5999999999984754 0  0.8 0.6199999999985095 0  0.8 0.6399999999985495 0  0.8 0.6599999999986212 0  0.8 0.6799999999986556 0  0.8 0.6999999999987259 0  0.8 0.7199999999987673 0  0.8 0.7399999999988217 0  0.8 0.7599999999988791 0  0.8 0.7799999999989176 0  0.8 0.799999999998991 0  0.8 0.8199999999990251 0  0.8 0.8399999999990941 0  0.8 0.8599999999991369 0  0.8 0.8799999999991899 0  0.8 0.8999999999992488 0  0.8 0.9199999999993075 0  0.8 0.9399999999993606 0  0.8 0.9599999999994034 0  0.8 0.9799999999994724 0  0.8 0.999999999999492 0  0.8 1.019999999999519 0  0.8 1.039999999999594 0  0.8 1.059999999999631 0  0.8 1.079999999999674 0  0.8 1.099999999999742 0  0.8 1.119999999999777 0  0.8 1.139999999999854 0  0.8 1.159999999999888 0  0.8 1.17999999999996 0  0.7800000000000553 1.2 0  0.7600000000001106 1.2 0  0.7400000000001659 1.2 0  0.7200000000002211 1.2 0  0.7000000000002765 1.2 0  0.6800000000003318 1.2 0  0.6600000000003871 1.2 0  0.6400000000004423 1.2 0  0.6200000000004977 1.2 0  0.600000000000553 1.2 0  0.5800000000006083 1.2 0  0.5600000000006635 1.2 0  0.5400000000007188 1.2 0  0.5200000000007741 1.2 0  0.5000000000008293 1.2 0  0.4800000000008847 1.2 0  0.4600000000009399 1.2 0  0.4400000000009953 1.2 0  0.4200000000010505 1.2 0  0.400000000001095 1.2 0  0.3800000000010462 1.2 0  0.3600000000009973 1.2 0  0.3400000000009377 1.2 0  0.3200000000008802 1.2 0  0.3000000000008292 1.2 0  0.2800000000007609 1.2 0  0.2600000000007165 1.2 0  0.2400000000006679 1.2 0  0.2200000000005931 1.2 0  0.200000000000553 1.2 0  0.1800000000005129 1.2 0  0.1600000000004382 1.2 0  0.1400000000003894 1.2 0  0.1200000000003449 1.2 0  0.1000000000002658 1.2 0  0.08000000000022567 1.2 0  0.06000000000017247 1.2 0  0.04000000000010195 1.2 0  0.02000000000006186 1.2 0  0 1.180000000000014 0  0 1.160000000000061 0  0 1.140000000000043 0  0 1.120000000000101 0  0 1.100000000000087 0  0 1.08000000000013 0  0 1.060000000000188 0  0 1.040000000000246 0  0 1.020000000000312 0  0 1.000000000000448 0  0 0.9800000000005058 0  0 0.9600000000005635 0  0 0.9400000000006214 0  0 0.9200000000006792 0  0 0.900000000000737 0  0 0.8800000000007948 0  0 0.8600000000008526 0  0 0.8400000000009105 0  0 0.8200000000009683 0  0 0.8000000000010261 0  0 0.7800000000010838 0  0 0.7600000000011418 0  0 0.7400000000011562 0  0 0.720000000001214 0  0 0.7000000000012718 0  0 0.6800000000013295 0  0 0.6600000000013874 0  0 0.6400000000014452 0  0 0.620000000001503 0  0 0.6000000000015392 0  0 0.5800000000015044 0  0 0.560000000001464 0  0 0.5400000000013919 0  0 0.5200000000013572 0  0 0.5000000000012862 0  0 0.4800000000012443 0  0 0.4600000000011893 0  0 0.4400000000011316 0  0 0.4200000000010925 0  0 0.4000000000010188 0  0 0.3800000000009841 0  0 0.3600000000009148 0  0 0.3400000000008714 0  0 0.3200000000008177 0  0 0.3000000000007585 0  0 0.2800000000006992 0  0 0.2600000000006457 0  0 0.2400000000006024 0  0 0.2200000000005329 0  0 0.2000000000005128 0  0 0.1800000000004853 0  0 0.1600000000004103 0  0 0.1400000000003727 0  0 0.1200000000003294 0  0 0.1000000000002599 0  0 0.08000000000022522 0  0 0.06000000000014727 0  0 0.04000000000011261 0  0 0.02000000000004043 0  0.08200576706547379 0.9778016748918428 0  0.08792249068077605 0.9947106993639884 0  0.09745348153409517 1.009879184313641 0  0.1101208159832026 1.02254651870263 0  0.1252893009472797 1.032077509469123 0  0.1421983253296921 1.03799423298509 0  0.177801674735615 1.037994232970184 0  0.1947106991799549 1.03207750940785 0  0.2098791842513054 1.022546518515616 0  0.2225465186890779 1.009879184033792 0  0.2320775095186238 0.9947106989499306 0  0.2379942329723831 0.9778016747259812 0  0.2379942329436031 0.9421983251479255 0  0.232077509358757 0.9252893007181028 0  0.2225465184863192 0.9101208157119572 0  0.2098791840478892 0.8974534813221647 0  0.1947106990528469 0.8879224905309382 0  0.1778016746475269 0.8820057670097102 0  0.1421983252623255 0.8820057670302859 0  0.1252893008164245 0.8879224905938938 0  0.1101208157175252 0.8974534815092405 0  0.09745348134334565 0.9101208159255508 0  0.08792249053412006 0.925289300940546 0  0.08200576702541029 0.942198325283687 0  0.4011665801458405 0.3792858688534452 0  0.4046493092160286 0.3982905063030366 0  0.4103974011758756 0.4167367819414187 0  0.4183270359375851 0.4343557076072153 0  0.4283225815694748 0.4508903596399111 0  0.440238280474433 0.4660996255237474 0  0.4539003748938967 0.4797617198955674 0  0.4691096407266868 0.4916774186835694 0  0.4856442926559605 0.5016729642005402 0  0.5032632182291437 0.5096025988888101 0  0.5217094937743253 0.5153506908030394 0  0.5407141311689709 0.5188334198568814 0  0.5792858689215318 0.5188334198458924 0  0.5982905063913289 0.5153506907622094 0  0.6167367821394346 0.5096025987490269 0  0.6343557077418965 0.5016729639917288 0  0.6508903597646312 0.4916774183444372 0  0.6660996256145468 0.4797617194451258 0  0.6797617199555291 0.4660996250384206 0  0.6916774187289604 0.4508903592075532 0  0.7016729642425431 0.4343557072640099 0  0.7096025989249927 0.4167367816754511 0  0.7153506908400739 0.3982905060754206 0  0.7188334198643374 0.3792858687696239 0  0.7188334198510806 0.3407141311211977 0  0.7153506907732183 0.3217094936533366 0  0.7096025987816212 0.30326321794651 0  0.7016729639619982 0.2856442922014567 0  0.6916774183560679 0.269109640252219 0  0.6797617194388204 0.2539003743783359 0  0.6660996250361918 0.2402382800424964 0  0.6508903592532529 0.228322581302584 0  0.6343557073600975 0.2183270358078877 0  0.6167367818541669 0.2103974011427854 0  0.5982905062166208 0.204649309194729 0  0.5792858688384183 0.2011665801440159 0  0.5407141310698349 0.201166580155156 0  0.5217094935442085 0.2046493092536793 0  0.5032632179022982 0.210397401235146 0  0.4856442922634712 0.2183270360054541 0  0.4691096402905957 0.2283225816174426 0  0.4539003744271503 0.2402382805179339 0  0.440238280043347 0.2539003749628482 0  0.4283225812896354 0.2691096407655063 0  0.4183270357860954 0.2856442926814242 0  0.4103974011160236 0.3032632182163981 0  0.4046493091928176 0.3217094937911341 0  0.4011665801379417 0.3407141312116074 0  0.7827685458484105 0.8300000450704184 0  0.530220339280583 0.5359481006371166 0  0.5099660674428638 1.182701013298268 0  0.4322722915888563 0.4863970297660941 0  0.7831405948914725 0.9299862777463945 0  0.01727141907501353 0.6500317798725089 0  0.01753594253231264 0.5500389149598461 0  0.3991037813730581 0.432413509907054 0  0.01684692257825548 0.2295690457146825 0  0.3996111313906288 0.2876707610281371 0  0.7822957875372298 0.7308883372732777 0  0.3837946644734879 0.3478424989074581 0  0.01875459500820713 0.4501544878097173 0  0.2126954131539928 0.0183521423862295 0  0.01587070753398327 0.3293253043689446 0  0.5888421127036902 1.183206871318142 0  0.4297693193342632 1.18315593423536 0  0.7826792125990156 1.009992975443333 0  0.5929064185865829 0.5356783909573085 0  0.2898025095651603 0.01482004396443814 0  0.0173205080756387 0.7300000000011853 0  0.01704299670452811 0.1500000002818928 0  0.4367299925839967 0.2368524831566569 0  0.3508047088006441 1.182485648318362 0  0.7835581811118595 0.6499933233371094 0  0.6699955506401005 1.182680141067542 0  0.3699582378716421 0.01732796906892943 0  0.1278076664321084 0.01764100876012956 0  0.6324001127727792 0.200206517479733 0  0.4875864899386487 0.1991037814509801 0  0.2924402258887547 1.18082428744698 0  0.01757143086805642 0.3886846832502135 0  0.7850674565762223 1.070409273905344 0  0.6885457213467617 0.01674837471426564 0  0.4296128097192602 0.01593785297754808 0  0.7830113103572047 0.5899952695099483 0  0.01560325780473876 0.7912160400988404 0  0.5701326646623476 0.1852297476078074 0  0.5076927575418702 0.01986832771668798 0  0.6303109704970837 0.01678222421255208 0  0.7823797631323929 0.1308443783970417 0  0.211692958440413 1.040127592446244 0  0.6494466693804556 0.5096188897844022 0  0.5712376670577722 0.01998902996369259
[...]
<PointData  Scalars="u"> 
<DataArray  type="Float64"  Name="u"  format="ascii">7.9753651630420630e-01  5.2345498459304494e-02  9.2458892252567781e-01  4.8958529581670712e-01  0.0000000000000000e+00  0.0000000000000000e+00  0.0000000000000000e+00  0.0000000000000000e+00  0.0000000000000000e+00  0.0000000000000000e+00  0.0000000000000000e+00  0.0000000000000000e+00  7.8004937352698678e-01  7.6084929053900041e-01  7.4028189896003838e-01  7.1851569737995036e-01  6.9566114402863688e-01  6.7180503946010606e-01  6.4702259692017172e-01  6.2138338982434804e-01  5.9495947021645168e-01  5.6782758249565224e-01  5.4007412275495426e-01  5.1179626542785250e-01  4.8310825957879111e-01  4.5413895673354027e-01  4.2503788980967094e-01  3.9597313227912068e-01  3.6713033980256299e-01  3.3871134920095752e-01  3.1092901218266256e-01  2.8400090857354859e-01  2.5814140298057670e-01  2.3355222765226671e-01  2.1041310359115950e-01  1.8887337146878116e-01  1.6904325949107238e-01  1.5099124060892419e-01  1.3474177195243511e-01  1.2027768001226090e-01  1.0754431683046028e-01  9.6459870084648000e-02  8.6919040598892675e-02  7.8806676268375106e-02  7.2001704483585491e-02  6.6385977535930812e-02  6.1848900998024092e-02  5.8290362429167332e-02  5.5624308468321615e-02  5.3779191219446597e-02  5.2699364745289863e-02  5.1999523920004426e-02  5.0986983371475295e-02  4.9356528134799516e-02  4.7174696036184953e-02  4.4523485726374254e-02  4.1500861255222940e-02  3.8219500122137789e-02  3.4805204514604893e-02  3.1394259401734861e-02  2.8129976216516805e-02  2.5158994441448656e-02  2.2627986345007980e-02  2.0682416528226742e-02  1.9469576547385049e-02  1.9147167253782755e-02  1.9900005188178659e-02  2.1953074702580268e-02  2.5589074068751598e-02  3.1138338980302261e-02  3.8944560336841967e-02  4.9313669983311555e-02  6.2446535618333264e-02  7.8397091188773152e-02  9.7060727475056646e-02  1.1819199140106126e-01  1.4144745320209978e-01  1.6643351974570422e-01  1.9274631757335095e-01  2.2000483736091031e-01  2.4786895855046909e-01  2.7604982756921065e-01  3.0431136046626600e-01  3.3246746377055536e-01  3.6037684095884376e-01  3.8793648660160529e-01  4.1507444262063009e-01  4.4174475226325738e-01  4.6792030483382968e-01  4.9358919018275993e-01  5.1875009016283335e-01  5.4340912216580606e-01  5.6757713197936488e-01  5.9126754145037907e-01  6.1449466623646454e-01  6.3727237980048557e-01  6.5961311245903798e-01  6.8152704574890666e-01  7.0302153163183767e-01  7.2410063305144534e-01  7.4476470341507128e-01  7.6501005710973402e-01  7.8482858686608581e-01  8.0420722101950570e-01  8.2312723292502465e-01  8.4156322019255847e-01  8.5948069980296338e-01  8.7683264068913969e-01  8.9355438561650780e-01  9.0954312182832686e-01  9.1056666023779953e-01  8.9685228814024065e-01  8.8322084379175902e-01  8.6955528082054223e-01  8.5577070279638812e-01  8.4179846094209121e-01  8.2757901239552134e-01  8.1305834315291881e-01  7.9818605633184014e-01  7.8291404384462904e-01  7.6719669241776067e-01  7.5098998958542296e-01  7.3425270372927787e-01  7.1694714912178215e-01  6.9904080286944537e-01  6.8050867865060849e-01  6.6133659838004444e-01  6.4152597382205434e-01  6.2109854047915414e-01  6.0010514587885011e-01  5.7863391982242651e-01  5.5682113037565661e-01  5.3486161189079762e-01  5.1302283853250641e-01  4.9164940029517601e-01  4.7117483770724150e-01  4.5210018462833262e-01  4.3499107835393902e-01  4.2043247175159409e-01  4.0897589233077658e-01  4.0108409832314795e-01  3.9707509660281548e-01  3.9708057129302388e-01  4.0103946505137783e-01  4.0871894555169064e-01  4.1975908820993041e-01  4.3374843095124482e-01  4.5027086862585403e-01  4.6897106817521045e-01  4.6681953323140479e-01  4.4153099920423039e-01  4.1379938286459311e-01  3.8387867687191046e-01  3.5224744191630708e-01  3.1967755128068137e-01  2.8729475119393288e-01  2.5657899243636662e-01  2.2930636309760427e-01  2.0735709072109731e-01  1.9235663107887596e-01  1.8538320820247875e-01  1.8670109582987554e-01  1.9572282433326207e-01  2.1117824411859815e-01  2.3142875840607083e-01  2.5478262790423145e-01  2.7973698897264443e-01  3.0510505187575560e-01  3.3002817943663965e-01  3.5394129762729742e-01  3.7650746869353841e-01  3.9755749594440332e-01  4.1703876868700568e-01  4.3497408235973678e-01  4.5143516440355747e-01  4.6652245016583316e-01  4.8035244413147504e-01  4.9304919222846205e-01  5.0473881747060390e-01  5.1554606167529882e-01  5.2559215659388159e-01  5.3499338728797530e-01  5.4386029750576059e-01  5.5229705042634081e-01  5.6040095461311057e-01  5.6826237889215048e-01  5.7596409909568136e-01  5.8358159176731872e-01  5.9118248623027425e-01  5.9882686921236605e-01  6.0656729964256206e-01  6.1444899548890486e-01  6.2251053387073230e-01  6.3078421836011778e-01  6.3929695725707780e-01  6.4807123451545312e-01  6.5712624780318851e-01  6.6647908842667014e-01  6.7614619878563498e-01  6.8614484746939230e-01  6.9649477207344956e-01  7.0722012361537401e-01  7.1835160861003289e-01  7.2992947135569231e-01  7.4200741957976279e-01  7.5465906757864676e-01  7.6799023893550455e-01  7.8216569108792200e-01  0.0000000000000000e+00  0.0000000000000000e+00  0.0000000000000000e+00  0.0000000000000000e+00  0.0000000000000000e+00  0.0000000000000000e+00  0.0000000000000000e+00  0.0000000000000000e+00  0.0000000000000000e+00  0.0000000000000000e+00  0.0000000000000000e+00  0.0000000000000000e+00  0.0000000000000000e+00  0.0000000000000000e+00  0.0000000000000000e+00  0.0000000000000000e+00  0.0000000000000000e+00  0.0000000000000000e+00  0.0000000000000000e+00  0.0000000000000000e+00  0.0000000000000000e+00  0.0000000000000000e+00  0.0000000000000000e+00  0.0000000000000000e+00  0.0000000000000000e+00  0.0000000000000000e+00  0.0000000000000000e+00  0.0000000000000000e+00  0.0000000000000000e+00  0.0000000000000000e+00  0.0000000000000000e+00  0.0000000000000000e+00  0.0000000000000000e+00  0.0000000000000000e+00  0.0000000000000000e+00  0.0000000000000000e+00  0.0000000000000000e+00  0.0000000000000000e+00  0.0000000000000000e+00  0.0000000000000000e+00  0.0000000000000000e+00  0.0000000000000000e+00  0.0000000000000000e+00  0.0000000000000000e+00  0.0000000000000000e+00  0.0000000000000000e+00  0.0000000000000000e+00  0.0000000000000000e+00  0.0000000000000000e+00  0.0000000000000000e+00  0.0000000000000000e+00  0.0000000000000000e+00  0.0000000000000000e+00  0.0000000000000000e+00  0.0000000000000000e+00  0.0000000000000000e+00  0.0000000000000000e+00  0.0000000000000000e+00  0.0000000000000000e+00  0.0000000000000000e+00  0.0000000000000000e+00  0.0000000000000000e+00  0.0000000000000000e+00  0.0000000000000000e+00  0.0000000000000000e+00  0.0000000000000000e+00  0.0000000000000000e+00  0.0000000000000000e+00  0.0000000000000000e+00  0.0000000000000000e+00  0.0000000000000000e+00  0.0000000000000000e+00  5.4703228091957756e-01  4.0113453845299525e-02  6.9262013572413372e-01  4.1738658634561887e-02  6.6116372478613616e-01  4.5501419128869519e-01  5.1216182959442014e-01  3.9576547291008117e-02  6.4609501387199841e-01  4.5054483329202630e-02  4.2213829239612538e-01  4.6416848914909103e-02  5.5310525021690593e-01  5.4007464083481393e-01  6.0323695883819584e-01  7.6012537310776340e-01  6.1499830030053126e-01  7.4438443432043466e-01  4.2559383007811730e-02  4.3297586913869468e-01  3.8804874397206623e-01  6.8629086214397039e-01  3.6000526662220401e-02  5.2842023301994723e-01  3.1238320895175703e-01  8.2097273657123049e-01  3.1828643254033262e-01  6.5076652929414391e-01  9.7087294898810690e-03  3.1276996301706918e-02  4.6218186340813378e-01  5.7802118616181908e-01  8.0451233504983721e-01  6.3529497039405372e-02  2.4133248596423160e-01  2.2831047573169100e-01  3.2219614763125004e-01  1.5924409061182584e-02  1.5750264829901187e-01  8.1084392964913488e-02  3.9522428348254354e-02  7.1768097507464101e-02  3.0687527592581053e-02  1.0990407404747168e-01  7.1304722022582659e-02  6.8992853612516059e-02  7.2055606986952370e-01  4.0330630514975463e-01  3.9094500537582200e-01  3.5054018509016675e-02  4.0950046263773021e-02  2.3478214306493796e-02  7.1551270108317763e-03  4.3343174398255718e-02  3.7572483560088227e-01  1.5100316232114308e-01  3.4395669912460769e-01  8.5746326470325573e-01  2.8986393446145706e-02  4.8336611988578360e-02  2.6897680865480424e-02  6.4405483140668615e-02  5.3457672727058748e-03  2.4491983972780654e-01  7.1766193236661890e-01  2.0504276883342901e-02  8.6311133193758716e-01  5.5010151221410002e-02  3.8309728237983315e-01  5.7359193600530345e-01  4.8068595644674678e-01  4.2468654168304615e-01  6.5675664738102768e-01  7.2765612565760596e-01  2.8210397692994943e-01  2.2720501136765180e-02  1.0529541051583760e-01  4.9840320853558878e-01  5.9469282310306604e-01  5.6254356351007437e-02  1.9448656217802313e-01  3.6736548650550233e-01  3.7419109399302758e-01  6.1857984621206985e-01  5.2953832982428140e-01  6.6524104229099734e-01  4.8919175323378122e-01  7.0450640487799598e-01  5.9781087308908942e-01  7.9221626109785781e-01  1.8453377733122455e-02  4.2128100934826662e-01  2.2042600467287218e-01  5.1048085879258048e-02  5.4880585857706561e-02  5.0821592070154027e-02  1.7172515972862727e-02  1.9579651547225704e-01  1.1774781510216333e-02  7.4612905352949221e-01  5.1938898479618441e-03  7.1463307156366561e-03  1.6246621017898244e-01  1.6519986445731469e-01  2.4480900744569784e-02  4.1083482574909685e-01  5.2933917206426116e-02  8.8755532548957095e-01  7.5521659581955602e-01  7.5969513633591404e-02  1.3208839497202426e-01  1.4268868648902028e-01  1.8800520745929303e-01  1.9887892746437358e-01  2.3815251235581586e-01  2.4909733737238413e-01  1.8369400337600889e-01  2.8361514544313049e-01  2.9435187008124064e-01  2.6352484969757384e-01  3.0724966743441340e-01  2.7851099263382534e-01  3.2171601822019380e-01  2.9621922245361593e-01  3.3731574956563748e-01  3.1593910038963219e-01  3.5337864999310364e-01  3.3344711709026031e-01  3.6869199612039555e-01  3.5109217781364310e-01  3.8384963042974934e-01  3.6696079636824958e-01  3.9788577320497742e-01  3.8167686212703744e-01  4.1087375231651441e-01  3.9510882031653255e-01  4.2287935650586050e-01  4.0718100069504570e-01  4.3364183053542887e-01  4.1795489919313594e-01  3.9234765446371966e-01  4.0301952140547731e-01  3.7847438813678475e-01  3.8880789583582981e-01  3.6547217826598699e-01  3.7533036528801622e-01  3.5328725868908190e-01  3.6243462240218161e-01  3.4178958374436191e-01  3.5003639382302631e-01  3.3085747348778277e-01  3.6995393162326456e-01  3.5661341745128666e-01  4.4313100636838237e-01  3.7596811406961667e-01  3.6164083096319816e-01  3.8060298313306612e-01  3.6529225303938939e-01  3.8395978297620031e-01  3.6768213535146166e-01  3.4993893483870880e-01  3.5126382104644133e-01  3.3446748023710032e-01  3.3460062337671809e-01  3.1874951153515702e-01  3.5141388579617477e-01  3.3356358060188013e-01  3.5049020715652413e-01  3.3143166833072463e-01  3.4858657976763135e-01  4.5955376720122065e-01  4.6809981196472289e-01  3.2837283557453356e-01  4.8515682716400305e-01  4.9286211076119185e-01  3.2185395000510469e-01  3.1262556743970193e-01  4.5684761695180501e-02  4.6793109936657015e-02  3.4580427336242703e-01  3.6649776059358002e-01  3.2450870522432868e-01  3.0750588142866847e-01  5.1031162630484028e-01  5.1713355579617781e-01  5.3496667755311955e-01  5.4109044514599902e-01  3.6389394688722970e-01  3.8504564829740862e-01  5.5319935378841750e-02  3.0249655195863417e-01  3.0288692308077086e-01  2.9544813771013162e-01  5.5918228049956875e-01  5.6473662577326422e-01  5.4651056408300780e-01  5.6962893142013005e-01  5.5126684832893591e-01  5.7387356579075133e-01  5.5524307061815870e-01  5.9242253308398962e-01  2.8589900185526324e-01  4.1463415426671663e-01  5.9623675401842069e-01  6.1496104596139967e-01  2.8516168839440098e-01  2.7973833331533071e-01  3.8254495340458655e-01  4.0410166485740578e-01  5.5296097318675053e-01  2.6888909728877164e-01  2.6580489763967197e-01  2.7961362844519927e-01  2.5441639266264121e-01  2.5373066746211437e-01  2.6303058553236475e-01  2.5303068383393140e-01  2.6005560222940050e-01  2.5211099792295055e-01  2.5694266923504394e-01  2.5085678518229199e-01  2.5342567183163700e-01  2.4912874691770165e-01  2.4700920591705258e-01  2.4704619603524608e-01  2.4548425390167394e-01  2.4724352546454656e-01  2.4636624995324555e-01  2.4976251400318847e-01  2.4968896644342958e-01  2.5459770435003981e-01  2.5230648816425055e-01  2.5857727860901086e-01  2.5542085893054006e-01  2.4944722521579576e-01  2.5402838518259319e-01  2.6170218130208328e-01  2.5500148811606027e-01  2.6406397214508520e-01  2.5530696855840446e-01  2.6576009189863087e-01  2.7504435142154771e-01  2.7802469656992396e-01  2.8781343350734379e-01  2.9196579328965372e-01  2.8045686931448599e-01  2.9560227117482257e-01  2.8248178942280688e-01  2.9886155534112313e-01  3.0742721817087026e-01  2.8424138068299942e-01  3.0188628654694832e-01  2.8588629070763172e-01  3.0482841925210719e-01  3.2066287340183819e-01  3.2473596210497679e-01  3.0781050662333270e-01  3.2886108380230766e-01  3.1098932456457445e-01  3.3284593913807259e-01  3.1446902863156467e-01  3.3763801597806142e-01  3.1851003803221822e-01  3.4252891134135355e-01  3.2309609914097343e-01  3.4811405198556639e-01  3.2842756718224075e-01  3.5460953380076132e-01  3.3462737351493971e-01  3.6134135913501242e-01  3.4157737792944398e-01  3.6889861391898776e-01  3.4937980867879703e-01  3.7724755816681144e-01  3.5803336214623865e-01  3.8632814543772032e-01  3.6748363310961507e-01  3.9634527020399046e-01  3.7770044915718448e-01  4.0646107319852487e-01  3.8847194016428133e-01  4.1728947595068183e-01  3.9979245014501863e-01  4.2861922904526534e-01  4.1157073428041052e-01  4.4076131575649430e-01  4.2377889864024065e-01  3.9384697166176647e-01  4.5285017675771139e-01  3.5030586770656891e-01  4.0642600651640864e-01  3.7588492183020633e-01  3.6647514483194871e-01  2.6808839040279431e-01  3.8764555988202687e-01  2.4807782487658961e-01  2.5485204545691675e-01  5.4672223269990598e-02  4.3488460284406460e-01  3.8887527428442048e-01  3.5775490957854367e-01  4.6918412794522529e-01  4.8113302254953844e-01  2.4204087548004988e-01  2.4678216287668539e-01  6.1836288451833499e-01  6.3720762623756033e-01  2.6337173642172979e-01  2.7232389486375636e-01  2.4498684497651491e-01  2.5303031346494076e-01  3.7121018152992641e-01  3.3958494858526311e-01  4.0164782129468163e-01  4.2353556852367336e-01  3.4817729430526240e-01  3.3451715157004991e-01  2.9162293912292919e-01  2.9678115649073572e-01  2.7270606189267199e-01  2.9052257971093359e-01  2.6534661836483919e-01  2.8383908862296875e-01  2.5768554557555612e-01  6.3354923897344950e-01  6.5589844104475414e-01  3.7481447657009431e-01  4.0184655539812791e-01  4.9677350639471268e-01  5.0868196704333823e-01  3.2595273402810576e-01  3.5354163282444884e-01  3.2161637295680595e-01  2.7684967341374944e-01  2.4987384658447440e-01  2.4050466260938441e-01  2.5005082122057232e-01  6.4026353452491158e-01  6.2114848901124498e-01  6.5210893675222259e-01  3.0715008286098161e-01  4.2109557626323280e-01  4.4323798281832794e-01  4.4499558460928879e-01  4.6491722453843504e-01  2.6355033542951412e-01  2.6215304286042118e-01  2.7635479953886510e-01  2.7655037156455986e-01  2.9120449128089210e-01  2.6010058106197892e-01  2.7629223583052198e-01  2.5767957632690353e-01  6.7443006103308589e-01  3.3604043341577283e-01  3.0400756904701698e-01  4.0019016507537636e-01  2.5416025650318064e-01  2.4799575472337784e-01  4.6607545461763750e-01  4.8626101894898743e-01  5.2363891159204667e-01  5.3554494020383570e-01  5.2078218626533479e-01  5.4771118509621752e-01  6.4275637730743063e-01  6.2334322670404241e-01  2.3913572388033782e-01  2.6966900949201056e-01  2.4206144321014936e-01  2.9637643771467304e-01  2.5313430059696795e-01  2.4481225949508109e-01  2.5041588276641136e-01  2.3998152481037677e-01  2.4608859850111978e-01  2.3354630848944830e-01  2.2887321758032281e-01  2.2023669794268380e-01  2.1702408605116230e-01  2.0616171529616223e-01  2.0439714110148138e-01  2.1001712169466558e-01  3.1876463595760685e-01  2.8687524634587280e-01  2.7584090011758300e-01  2.5513191942342733e-01  2.7115074356479402e-01  2.5430869059183508e-01  2.7033799935417152e-01  2.3837822604010672e-01  2.3676617212809320e-01  4.6112392271702063e-01  5.3310745089050171e-01  3.3391987406242030e-01  6.7056563391951196e-01  3.5389612486491051e-01  2.4500864628312735e-01  3.5006830527663196e-01  1.9107131241542663e-01  1.9092216838829240e-01  2.5451864502056309e-01  2.2345781321199795e-01  5.3285925029782255e-01  2.7031146273695850e-01  2.4822237871547254e-01  5.4980624975364600e-01  5.3814218128846447e-01  2.3373772092784492e-01  6.9279796339723465e-01  6.9637086101501056e-01  5.3655693528698045e-01  6.4469420329969152e-01  6.2494917942347117e-01  2.8959297510521909e-01  3.1612314193653746e-01  5.6011433903534369e-01  2.3194421177002914e-01  2.5287254079670402e-01  2.2765353974792660e-01  2.7277284701687238e-01  3.1864114542106448e-01  2.3946342547503260e-01  2.0955685980591560e-01  1.7513677104875033e-01  1.7662516894451188e-01  2.1315357031687052e-01  2.3736603287391758e-01  7.1465953566870610e-01  7.1796568159288798e-01  4.0321476351164709e-01  5.4565616284583585e-01  4.7549149792140044e-01  6.8881082645560265e-01  6.6624590984380028e-01  4.2027498322286183e-01  2.5592314363905200e-01  2.3437978328020070e-01  2.2498584607339989e-01  2.1162447399929785e-01  2.0038161060586476e-01  1.8744969997751790e-01  5.6362433939431011e-01  5.5271079535066514e-01  1.9222714480917408e-01  1.7982702907067455e-01  1.9665213566625503e-01  1.6865693483050095e-01  2.5124884499322730e-01  2.2430737620848665e-01  2.6940453923690350e-01  4.8684345401516582e-01  5.0728918036505211e-01  6.4607119117522893e-01  6.2596410412157444e-01  6.6587837440161024e-01  1.5817254590675392e-01  1.6149382841864854e-01  1.5680577463399678e-01  3.0956586366218503e-01  3.3599534443675394e-01  1.7416939674856668e-01  7.3615383505214049e-01  7.3924004410996724e-01  6.8349887126302955e-01  6.6140659700764848e-01  1.8074853129875035e-01  1.6761210814105845e-01  1.8469993925993164e-01  1.5853347222358349e-01  2.6022801237100557e-01  5.7272627663168429e-01  5.8652622579385616e-01  1.6162202299396891e-01  7.5731950829941241e-01  7.6022117760031693e-01  2.2626165625029077e-01  2.2092267778197225e-01  2.1019448663557064e-01  2.0654282339334235e-01  1.9225068116355112e-01  1.9049891893864124e-01  2.1889334366230068e-01  6.6856119817303689e-02  6.0563317605086964e-01  6.0571780925146335e-01  3.0349141325328088e-01  2.4033726701986283e-01  3.6294186460017486e-01  2.9776367894269917e-01  2.2185469232434893e-01  2.1348420054410272e-01  1.9272611310657242e-01  1.8387704334314464e-01  2.0548767694917994e-01  1.7575607428990792e-01  1.9796445344504437e-01  1.6847384124450504e-01  3.2043539660822429e-01  2.4122427359120382e-01  3.4037536522517331e-01  5.1801817900038893e-01  5.3065056741585870e-01  5.0246972624052955e-01  2.5401167991369439e-01  4.0478709680846842e-01  5.0665243883733468e-01  4.2296259807523329e-01  4.3878076369149244e-01  5.0194881529275237e-01  2.6694461780964057e-01  3.9749261468635744e-01  2.9435219868259377e-01  2.9574777274044545e-01  3.1404913872009949e-01  3.1716456893783967e-01  3.3508918520903952e-01  3.3057588226687407e-01  3.5138353584023468e-01  3.4556966881719825e-01  3.6625307317393652e-01  3.5922422176058932e-01  3.7986987728446714e-01  3.7164418654804665e-01  3.9222327219302122e-01  3.8300680306080959e-01  4.0390934000118683e-01  3.9364199993742416e-01  4.1431005781887431e-01  4.0360486101851323e-01  4.2430491740054488e-01  4.1283338205607867e-01  4.3411873108789195e-01  4.2170436115595133e-01  4.4323848698285689e-01  4.3020199355400501e-01  3.5184235129705871e-01  4.5197145841076697e-01  4.3844165757507536e-01  4.5963379750335959e-01  4.4639594229943669e-01  4.7145064708412004e-01  4.5500479199148147e-01  4.7710360033817978e-01  4.6271311552445948e-01  4.8543341002095208e-01  4.7082820807686870e-01  4.9383234815621868e-01  4.7916380946237624e-01  5.0136828296739167e-01  4